calculator: abacus
length_unit: au
nqpoint: 606    
npath: 6      
segment_nqpoint:
- 101
- 101
- 101
- 101
- 101
- 101
reciprocal_lattice:
- [   0.17407145,   0.10050020,   0.00000000 ] # a*
- [   0.00000000,   0.20100039,   0.00000000 ] # b*
- [   0.00000000,   0.00000000,   0.02899601 ] # c*
natom: 3      
lattice:
- [     5.744767538000000,     0.000000000000000,     0.000000000000000 ] # a
- [    -2.872383769000000,     4.975114605003465,     0.000000000000000 ] # b
- [     0.000000000000000,     0.000000000000000,    34.487502468473224 ] # c
points:
- symbol: Mo # 1
  coordinates: [  0.666666670000000,  0.333333330000000,  0.089041090000000 ]
  mass: 95.960000
  magnetic_moment: 0.00000000
- symbol: S  # 2
  coordinates: [  0.000000000000000,  0.000000000000000,  0.000000000000000 ]
  mass: 32.065000
  magnetic_moment: 0.00000000
- symbol: S  # 3
  coordinates: [  0.000000000000000,  0.000000000000000,  0.178082190000000 ]
  mass: 32.065000
  magnetic_moment: 0.00000000

phonon:
- q-position: [    0.3750000,    0.3750000,    0.7500000 ]
  distance:    0.0000000
  band:
  - # 1
    frequency:    5.9466030025
    eigenvector:
    - # atom 1
      - [  0.00078457798558,  0.00000000000000 ]
      - [  0.00081776188282,  0.00082926571855 ]
      - [ -0.69106194388803, -0.45097722541194 ]
    - # atom 2
      - [  0.24039226882690,  0.14996464004989 ]
      - [  0.09536161352888, -0.23816552037627 ]
      - [  0.06233098541953,  0.09770281261956 ]
    - # atom 3
      - [ -0.27257742941486,  0.07881544148785 ]
      - [  0.11290280444195,  0.22986325612159 ]
      - [  0.11453031418837,  0.01771435769342 ]
  - # 2
    frequency:    6.2053656426
    eigenvector:
    - # atom 1
      - [ -0.50620436210018,  0.00000000000000 ]
      - [ -0.29583968540200, -0.58450347096943 ]
      - [ -0.00100682129412, -0.00100066933663 ]
    - # atom 2
      - [  0.07162886996627,  0.07180027658006 ]
      - [  0.03613836884902,  0.15724378308197 ]
      - [  0.32436481510495, -0.12555777090876 ]
    - # atom 3
      - [  0.10024740007897, -0.00513220208214 ]
      - [  0.14129105305757,  0.07923712106274 ]
      - [ -0.12356738113498,  0.32512826612646 ]
  - # 3
    frequency:    6.8782892196
    eigenvector:
    - # atom 1
      - [  0.65479177218656,  0.00000000000000 ]
      - [ -0.22967523166467, -0.44982971415975 ]
      - [  0.00006273351802, -0.00019019743768 ]
    - # atom 2
      - [ -0.00788149531719,  0.20597812617107 ]
      - [ -0.24057560661139,  0.15133318953901 ]
      - [ -0.13815371893657, -0.12538417904518 ]
    - # atom 3
      - [  0.14759355364210,  0.14416989742440 ]
      - [ -0.04897503485004,  0.27982153731227 ]
      - [  0.18563996871984, -0.01858613524998 ]
  - # 4
    frequency:    9.7478661087
    eigenvector:
    - # atom 1
      - [  0.00024733126423, -0.00000000000000 ]
      - [ -0.00006085284152,  0.00020022614100 ]
      - [ -0.01869198840826, -0.04567299466883 ]
    - # atom 2
      - [  0.10921959613093,  0.01630395500531 ]
      - [  0.19002886183922, -0.00179885562307 ]
      - [  0.02058150671134, -0.67085743591362 ]
    - # atom 3
      - [ -0.08521718414929,  0.07016779308850 ]
      - [ -0.12593146403331,  0.14235421330330 ]
      - [ -0.48500612162347, -0.46394219438240 ]
  - # 5
    frequency:   10.1269569586
    eigenvector:
    - # atom 1
      - [  0.00009938473411,  0.00000000000000 ]
      - [  0.00007501426116,  0.00011339661776 ]
      - [ -0.07600921937026, -0.06510252882150 ]
    - # atom 2
      - [ -0.11043667277831,  0.42337387316509 ]
      - [ -0.52242386118646,  0.03516334592831 ]
      - [ -0.07382848588436, -0.15471465134088 ]
    - # atom 3
      - [ -0.24011972530118, -0.36464702595829 ]
      - [  0.32483510970138, -0.41165770039433 ]
      - [ -0.16422192948081, -0.04917750038396 ]
  - # 6
    frequency:   10.5317762874
    eigenvector:
    - # atom 1
      - [ -0.11355538076443,  0.00000000000000 ]
      - [ -0.09751948060139,  0.12716827249939 ]
      - [ -0.00015433022643,  0.00012034475515 ]
    - # atom 2
      - [ -0.32672886735764, -0.39081772039761 ]
      - [ -0.31229022259728,  0.35051498505479 ]
      - [ -0.00700115657512, -0.02804392756768 ]
    - # atom 3
      - [ -0.51001686054633, -0.01775407387493 ]
      - [  0.05125781989885,  0.46563549256593 ]
      - [  0.02549184331797,  0.01362512352110 ]
  - # 7
    frequency:   11.4473058566
    eigenvector:
    - # atom 1
      - [ -0.37405709852056,  0.00000000000000 ]
      - [ -0.00573074120429,  0.37730772035683 ]
      - [ -0.00055161891847,  0.00093882237412 ]
    - # atom 2
      - [  0.05655627195935,  0.42344818502518 ]
      - [ -0.40709304646289,  0.02435453356619 ]
      - [ -0.05834702409887, -0.08132544352122 ]
    - # atom 3
      - [  0.35188992104456,  0.23988852985851 ]
      - [ -0.25575058347504,  0.31944245937150 ]
      - [  0.09944131597199,  0.01138541445173 ]
  - # 8
    frequency:   11.6825388593
    eigenvector:
    - # atom 1
      - [  0.00077480321785,  0.00000000000000 ]
      - [ -0.00001927301901, -0.00076335160136 ]
      - [ -0.27082693859817,  0.48296093574129 ]
    - # atom 2
      - [ -0.27310436254405,  0.37594058935144 ]
      - [  0.34998338114829,  0.03981928796728 ]
      - [ -0.06563046036933,  0.04900551577492 ]
    - # atom 3
      - [ -0.09833630519478, -0.45516706725199 ]
      - [ -0.26268837611925,  0.23267787036026 ]
      - [ -0.00758370263690,  0.08155602589354 ]
  - # 9
    frequency:   12.1148763167
    eigenvector:
    - # atom 1
      - [ -0.40272826382146,  0.00000000000000 ]
      - [  0.03124685710628, -0.38299209583233 ]
      - [  0.00002579873960,  0.00004909222162 ]
    - # atom 2
      - [ -0.06326845918848, -0.03732573149665 ]
      - [  0.03043992257631, -0.07342809153267 ]
      - [ -0.57617227352663,  0.03723499690255 ]
    - # atom 3
      - [ -0.06989671175175,  0.02228191061495 ]
      - [ -0.03441449838136, -0.07174949559867 ]
      - [  0.35746711129872, -0.45340732031469 ]

- q-position: [    0.3712500,    0.3712500,    0.7425000 ]
  distance:    0.0013235
  band:
  - # 1
    frequency:    5.9573809306
    eigenvector:
    - # atom 1
      - [  0.00074580926273,  0.00000000000000 ]
      - [  0.00068170083006,  0.00082376385002 ]
      - [ -0.66372297391460, -0.49155258688836 ]
    - # atom 2
      - [  0.23314714395453,  0.16099313901822 ]
      - [  0.11190298651333, -0.23382413964367 ]
      - [  0.05247643210683,  0.09325727961288 ]
    - # atom 3
      - [ -0.27643014302345,  0.06370812273871 ]
      - [  0.09672236180820,  0.24009336531458 ]
      - [  0.10450608038978,  0.02300381030545 ]
  - # 2
    frequency:    6.2239549645
    eigenvector:
    - # atom 1
      - [ -0.51721081288766,  0.00000000000000 ]
      - [ -0.25343311508150, -0.59551231685254 ]
      - [ -0.00089837871598, -0.00096911605778 ]
    - # atom 2
      - [  0.06237768757148,  0.06531757454191 ]
      - [  0.02605239278154,  0.14039210266209 ]
      - [  0.33850568591117, -0.11696944987872 ]
    - # atom 3
      - [  0.08932213551681, -0.00187515874104 ]
      - [  0.12132755596869,  0.07644406555288 ]
      - [ -0.14224150013368,  0.32868724836833 ]
  - # 3
    frequency:    6.9004785031
    eigenvector:
    - # atom 1
      - [  0.64755553933744,  0.00000000000000 ]
      - [ -0.20200999082567, -0.47693884119194 ]
      - [  0.00005981449435, -0.00016599822890 ]
    - # atom 2
      - [ -0.00758838206402,  0.21289223306222 ]
      - [ -0.24962459028758,  0.14447838978600 ]
      - [ -0.12047721030569, -0.11451926920768 ]
    - # atom 3
      - [  0.15166040664516,  0.14985381261412 ]
      - [ -0.06249019866118,  0.28143393293091 ]
      - [  0.16583286917512, -0.01135256460742 ]
  - # 4
    frequency:    9.7416028337
    eigenvector:
    - # atom 1
      - [  0.00025574868176, -0.00000000000000 ]
      - [ -0.00005561591010,  0.00021421986371 ]
      - [ -0.01915832968213, -0.04459001875642 ]
    - # atom 2
      - [  0.09552359053089,  0.01737309169733 ]
      - [  0.16574388400562, -0.00814709711622 ]
      - [  0.00619577932778, -0.67957332827215 ]
    - # atom 3
      - [ -0.07734511532309,  0.05864050462687 ]
      - [ -0.10602662356217,  0.12767682008664 ]
      - [ -0.49722658033919, -0.46327532201258 ]
  - # 5
    frequency:   10.1412575931
    eigenvector:
    - # atom 1
      - [  0.00008631392319,  0.00000000000000 ]
      - [  0.00006094106403,  0.00009904583152 ]
      - [ -0.06803952948236, -0.06083562520651 ]
    - # atom 2
      - [ -0.11542872973618,  0.42890260051999 ]
      - [ -0.52643508422277,  0.02296063507271 ]
      - [ -0.06003379563476, -0.13148549888409 ]
    - # atom 3
      - [ -0.23773255460148, -0.37402697455786 ]
      - [  0.34005930897074, -0.40359514641960 ]
      - [ -0.13735704599515, -0.04500594349277 ]
  - # 6
    frequency:   10.5128866166
    eigenvector:
    - # atom 1
      - [ -0.10532854014390,  0.00000000000000 ]
      - [ -0.08556961365822,  0.11907631601531 ]
      - [ -0.00013883477773,  0.00011293764434 ]
    - # atom 2
      - [ -0.33818948938169, -0.38130617563950 ]
      - [ -0.30726482762861,  0.35875144584319 ]
      - [ -0.00762121240332, -0.02762936865931 ]
    - # atom 3
      - [ -0.51059029513147, -0.00708210387345 ]
      - [  0.05679228207653,  0.46787053286069 ]
      - [  0.02549943971471,  0.01308600264240 ]
  - # 7
    frequency:   11.4523921447
    eigenvector:
    - # atom 1
      - [ -0.37539954460819,  0.00000000000000 ]
      - [ -0.00239898301727,  0.37677441509961 ]
      - [ -0.00052374108795,  0.00090050119314 ]
    - # atom 2
      - [  0.05858330162769,  0.42274593777964 ]
      - [ -0.40826088493870,  0.02969441140184 ]
      - [ -0.05548697986348, -0.07596740445203 ]
    - # atom 3
      - [  0.35068154812420,  0.24097634049510 ]
      - [ -0.25527682547964,  0.32170084998766 ]
      - [  0.09346705944815,  0.01066584600841 ]
  - # 8
    frequency:   11.6742260520
    eigenvector:
    - # atom 1
      - [  0.00074802687659,  0.00000000000000 ]
      - [ -0.00005124316762, -0.00071600084581 ]
      - [ -0.26015086129037,  0.48936779120208 ]
    - # atom 2
      - [ -0.25492241862358,  0.38460365271909 ]
      - [  0.35503605677939,  0.04080265824816 ]
      - [ -0.05976715486432,  0.04718929119671 ]
    - # atom 3
      - [ -0.11315244695170, -0.44833036963472 ]
      - [ -0.26882296024119,  0.23356259801494 ]
      - [ -0.00568807780870,  0.07593805222405 ]
  - # 9
    frequency:   12.1118636107
    eigenvector:
    - # atom 1
      - [ -0.40142831291708,  0.00000000000000 ]
      - [  0.02535849943594, -0.38567761748481 ]
      - [  0.00003546528409,  0.00006626818148 ]
    - # atom 2
      - [ -0.05866499874714, -0.03490135801877 ]
      - [  0.02702929794691, -0.07008109320901 ]
      - [ -0.57661885695754,  0.04406333245713 ]
    - # atom 3
      - [ -0.06523432926748,  0.01989626089131 ]
      - [ -0.03361884680749, -0.06723112128186 ]
      - [  0.35651743021425, -0.45533087466117 ]

- q-position: [    0.3675000,    0.3675000,    0.7350000 ]
  distance:    0.0026470
  band:
  - # 1
    frequency:    5.9677902537
    eigenvector:
    - # atom 1
      - [  0.00070897520157,  0.00000000000000 ]
      - [  0.00056037326422,  0.00080459895187 ]
      - [ -0.63616214566964, -0.52784907532624 ]
    - # atom 2
      - [  0.22601402934158,  0.17075786031235 ]
      - [  0.12717215576007, -0.22881819904144 ]
      - [  0.04353195285776,  0.08757660860445 ]
    - # atom 3
      - [ -0.27920334134481,  0.04949158806725 ]
      - [  0.08074288050385,  0.24869213472096 ]
      - [  0.09410493604623,  0.02662619585374 ]
  - # 2
    frequency:    6.2393255836
    eigenvector:
    - # atom 1
      - [  0.52752371564232,  0.00000000000000 ]
      - [  0.21402969510797,  0.60236606723429 ]
      - [  0.00080247404877,  0.00093210025089 ]
    - # atom 2
      - [ -0.05385531626308, -0.05843884496558 ]
      - [ -0.01806996984209, -0.12350942706633 ]
      - [ -0.35051099057731,  0.10852309923489 ]
    - # atom 3
      - [ -0.07855571772929, -0.00040171684189 ]
      - [ -0.10284109649843, -0.07175752769373 ]
      - [  0.15941469470296, -0.33048777995064 ]
  - # 3
    frequency:    6.9227832422
    eigenvector:
    - # atom 1
      - [ -0.64062346550619,  0.00000000000000 ]
      - [  0.17467149524112,  0.50067839176611 ]
      - [ -0.00005582244168,  0.00014318720736 ]
    - # atom 2
      - [  0.00651676770828, -0.21929950253800 ]
      - [  0.25710104752616, -0.13634058673059 ]
      - [  0.10377323514652,  0.10301920044327 ]
    - # atom 3
      - [ -0.15580288751647, -0.15469895283215 ]
      - [  0.07590106752930, -0.28081518207947 ]
      - [ -0.14611813105508,  0.00559747880330 ]
  - # 4
    frequency:    9.7349602983
    eigenvector:
    - # atom 1
      - [  0.00026223649641, -0.00000000000000 ]
      - [ -0.00004987917945,  0.00022622201861 ]
      - [ -0.01910087407373, -0.04256210558132 ]
    - # atom 2
      - [  0.08313722024540,  0.01781302634070 ]
      - [  0.14346898098855, -0.01252550164981 ]
      - [ -0.00762750252302, -0.68621005084669 ]
    - # atom 3
      - [ -0.06971675932749,  0.04863780578712 ]
      - [ -0.08869689281734,  0.11347306515551 ]
      - [ -0.50758985066590, -0.46183866899582 ]
  - # 5
    frequency:   10.1551607340
    eigenvector:
    - # atom 1
      - [  0.00007439696650,  0.00000000000000 ]
      - [  0.00004011583340,  0.00008585934990 ]
      - [ -0.05730007164212, -0.05922486505373 ]
    - # atom 2
      - [ -0.14138724789652,  0.42755610612600 ]
      - [ -0.52813503851719, -0.01737861267999 ]
      - [ -0.04257613442360, -0.11299827986621 ]
    - # atom 3
      - [ -0.21593229059151, -0.39403141411742 ]
      - [  0.37415343132618, -0.37435933705109 ]
      - [ -0.11153044802222, -0.04628496125491 ]
  - # 6
    frequency:   10.4952621461
    eigenvector:
    - # atom 1
      - [ -0.09664171775892,  0.00000000000000 ]
      - [ -0.07416044704950,  0.11007079709002 ]
      - [ -0.00012252482654,  0.00010377624885 ]
    - # atom 2
      - [ -0.34910418774751, -0.37143504451661 ]
      - [ -0.30250073115238,  0.36659849554706 ]
      - [ -0.00808161300094, -0.02680134721942 ]
    - # atom 3
      - [ -0.51072708742484,  0.00341938781218 ]
      - [  0.06184182178403,  0.47017083546116 ]
      - [  0.02510597741077,  0.01238202647577 ]
  - # 7
    frequency:   11.4571952327
    eigenvector:
    - # atom 1
      - [ -0.37651519728815,  0.00000000000000 ]
      - [  0.00037962170683,  0.37629576727778 ]
      - [ -0.00049054699375,  0.00085064264621 ]
    - # atom 2
      - [  0.06031065332720,  0.42211957650481 ]
      - [ -0.40943331028379,  0.03473622467779 ]
      - [ -0.05214669049679, -0.07024611533070 ]
    - # atom 3
      - [  0.34934306606791,  0.24234937320059 ]
      - [ -0.25506142710655,  0.32378144566148 ]
      - [  0.08691834496085,  0.00994964107656 ]
  - # 8
    frequency:   11.6664713025
    eigenvector:
    - # atom 1
      - [  0.00071055458785,  0.00000000000000 ]
      - [ -0.00007465816332, -0.00066185996853 ]
      - [ -0.25085119035241,  0.49474939609203 ]
    - # atom 2
      - [ -0.23729593505528,  0.39162687711398 ]
      - [  0.36015447279176,  0.04293857543290 ]
      - [ -0.05395712715913,  0.04472778385551 ]
    - # atom 3
      - [ -0.12649172404296, -0.44106304508567 ]
      - [ -0.27588290919373,  0.23364030393772 ]
      - [ -0.00419252820721,  0.06995976649172 ]
  - # 9
    frequency:   12.1089259108
    eigenvector:
    - # atom 1
      - [ -0.40026979356539,  0.00000000000000 ]
      - [  0.02006515440570, -0.38799400570898 ]
      - [  0.00004268650451,  0.00007848197741 ]
    - # atom 2
      - [ -0.05384291020568, -0.03233311372928 ]
      - [  0.02373187990753, -0.06609264990646 ]
      - [ -0.57706086018310,  0.05045687932844 ]
    - # atom 3
      - [ -0.06027590306811,  0.01753396197868 ]
      - [ -0.03235649468915, -0.06235673705442 ]
      - [  0.35593918953846, -0.45700374875659 ]

- q-position: [    0.3637500,    0.3637500,    0.7275000 ]
  distance:    0.0039706
  band:
  - # 1
    frequency:    5.9777118142
    eigenvector:
    - # atom 1
      - [  0.00067011056087,  0.00000000000000 ]
      - [  0.00045260268274,  0.00077098153342 ]
      - [ -0.60933707414183, -0.55960996202101 ]
    - # atom 2
      - [  0.21926007041855,  0.17914126329134 ]
      - [  0.14098427023819, -0.22346730750371 ]
      - [  0.03558244956284,  0.08077748880993 ]
    - # atom 3
      - [ -0.28101753339976,  0.03646350523534 ]
      - [  0.06536332094066,  0.25574981457515 ]
      - [  0.08350755138752,  0.02859374540545 ]
  - # 2
    frequency:    6.2518232922
    eigenvector:
    - # atom 1
      - [  0.53700734128824,  0.00000000000000 ]
      - [  0.17810281264664,  0.60588343732215 ]
      - [  0.00071444723037,  0.00088677033163 ]
    - # atom 2
      - [ -0.04605700763309, -0.05137337561204 ]
      - [ -0.01194082381641, -0.10697529155225 ]
      - [ -0.36049150683337,  0.10051039303024 ]
    - # atom 3
      - [ -0.06812297755530, -0.00184982275872 ]
      - [ -0.08597745462885, -0.06565427122069 ]
      - [  0.17491262858681, -0.33085047675298 ]
  - # 3
    frequency:    6.9446219524
    eigenvector:
    - # atom 1
      - [ -0.63413425884248,  0.00000000000000 ]
      - [  0.14832968990438,  0.52106846538994 ]
      - [ -0.00005088514735,  0.00012174525817 ]
    - # atom 2
      - [  0.00458646763879, -0.22526044815848 ]
      - [  0.26296259648845, -0.12720527092554 ]
      - [  0.08820536469986,  0.09113638820612 ]
    - # atom 3
      - [ -0.16014268679540, -0.15869207476152 ]
      - [  0.08891738667532, -0.27813424261337 ]
      - [ -0.12682442908768,  0.00126166676697 ]
  - # 4
    frequency:    9.7282243991
    eigenvector:
    - # atom 1
      - [  0.00026694179059, -0.00000000000000 ]
      - [ -0.00004383261780,  0.00023627473545 ]
      - [ -0.01854970541870, -0.03974044692333 ]
    - # atom 2
      - [  0.07183684344926,  0.01764851265059 ]
      - [  0.12300353158819, -0.01525338192164 ]
      - [ -0.02087493123180, -0.69120759463300 ]
    - # atom 3
      - [ -0.06223315547221,  0.03997134291468 ]
      - [ -0.07358016520345,  0.09974879403905 ]
      - [ -0.51642808786360, -0.45989752304045 ]
  - # 5
    frequency:   10.1683598010
    eigenvector:
    - # atom 1
      - [  0.00006473892656,  0.00000000000000 ]
      - [  0.00001351620070,  0.00007084371497 ]
      - [ -0.04287362404465, -0.05968036110951 ]
    - # atom 2
      - [ -0.19741303386091,  0.41126444504327 ]
      - [ -0.51946300800756, -0.09695614988607 ]
      - [ -0.02164784923515, -0.09735891316676 ]
    - # atom 3
      - [ -0.16236225584396, -0.42522983427447 ]
      - [  0.42906675335880, -0.30995559111985 ]
      - [ -0.08535630588588, -0.05159155351801 ]
  - # 6
    frequency:   10.4790459000
    eigenvector:
    - # atom 1
      - [ -0.08749977305713,  0.00000000000000 ]
      - [ -0.06332557655493,  0.10022098987686 ]
      - [ -0.00010563531699,  0.00009299492031 ]
    - # atom 2
      - [ -0.35946435784415, -0.36122105123860 ]
      - [ -0.29798872014271,  0.37407140820730 ]
      - [ -0.00835059093539, -0.02555379947789 ]
    - # atom 3
      - [ -0.51042534625820,  0.01374181433681 ]
      - [  0.06642755066093,  0.47253198530595 ]
      - [  0.02428912065062,  0.01152248474426 ]
  - # 7
    frequency:   11.4616802174
    eigenvector:
    - # atom 1
      - [ -0.37740393414803,  0.00000000000000 ]
      - [  0.00259259890739,  0.37589517566292 ]
      - [ -0.00045188055823,  0.00078893825422 ]
    - # atom 2
      - [  0.06173999421295,  0.42156218707196 ]
      - [ -0.41060606765269,  0.03946316380795 ]
      - [ -0.04831720793611, -0.06414848772357 ]
    - # atom 3
      - [  0.34786479544650,  0.24399758540703 ]
      - [ -0.25510678301102,  0.32566390683620 ]
      - [  0.07977818305452,  0.00922076829812 ]
  - # 8
    frequency:   11.6593392072
    eigenvector:
    - # atom 1
      - [  0.00066223426862,  0.00000000000000 ]
      - [ -0.00008998246784, -0.00060137291667 ]
      - [ -0.24273510222296,  0.49929874077655 ]
    - # atom 2
      - [ -0.22013706723541,  0.39722501336707 ]
      - [  0.36532387394710,  0.04606625721832 ]
      - [ -0.04817359614907,  0.04168269117629 ]
    - # atom 3
      - [ -0.13858425284731, -0.43340966555017 ]
      - [ -0.28372268224883,  0.23298836621244 ]
      - [ -0.00302519590882,  0.06363167685776 ]
  - # 9
    frequency:   12.1060935449
    eigenvector:
    - # atom 1
      - [ -0.39925675237614,  0.00000000000000 ]
      - [  0.01538941875247, -0.38996699821316 ]
      - [  0.00004738302880,  0.00008589476778 ]
    - # atom 2
      - [ -0.04879494763109, -0.02960637211479 ]
      - [  0.02055819900046, -0.06145319498261 ]
      - [ -0.57749776439945,  0.05640198832514 ]
    - # atom 3
      - [ -0.05500527459118,  0.01520629377019 ]
      - [ -0.03062222980193, -0.05711467711808 ]
      - [  0.35573540393107, -0.45840721478118 ]

- q-position: [    0.3600000,    0.3600000,    0.7200000 ]
  distance:    0.0052941
  band:
  - # 1
    frequency:    5.9870210681
    eigenvector:
    - # atom 1
      - [  0.00062588518114,  0.00000000000000 ]
      - [  0.00035758032551,  0.00072270009300 ]
      - [ -0.58392571658653, -0.58698351800212 ]
    - # atom 2
      - [  0.21306168511793,  0.18615800037140 ]
      - [  0.15330319435337, -0.21803468357783 ]
      - [  0.02862491000612,  0.07300391580786 ]
    - # atom 3
      - [ -0.28203574492956,  0.02476091957715 ]
      - [  0.05083545460118,  0.26143750191802 ]
      - [  0.07285341586646,  0.02900580963386 ]
  - # 2
    frequency:    6.2617969842
    eigenvector:
    - # atom 1
      - [  0.54560586871592,  0.00000000000000 ]
      - [  0.14580308987738,  0.60686475455588 ]
      - [  0.00063068760830,  0.00083058764256 ]
    - # atom 2
      - [ -0.03893149471588, -0.04429175532341 ]
      - [ -0.00737741589169, -0.09104800600708 ]
      - [ -0.36863600427565,  0.09311712161682 ]
    - # atom 3
      - [ -0.05813272514677, -0.00263275427859 ]
      - [ -0.07075425322431, -0.05855832182969 ]
      - [  0.18870081382489, -0.33008378458950 ]
  - # 3
    frequency:    6.9654215307
    eigenvector:
    - # atom 1
      - [ -0.62816568447853,  0.00000000000000 ]
      - [  0.12348354079823,  0.53830845155145 ]
      - [ -0.00004517884092,  0.00010167793084 ]
    - # atom 2
      - [  0.00176047285684, -0.23084472933583 ]
      - [  0.26725038939471, -0.11733968635331 ]
      - [  0.07383464595850,  0.07909821367490 ]
    - # atom 3
      - [ -0.16477846593242, -0.16186100508597 ]
      - [  0.10132569787529, -0.27361640319937 ]
      - [ -0.10818923487345, -0.00178095686195 ]
  - # 4
    frequency:    9.7216416749
    eigenvector:
    - # atom 1
      - [ -0.00026997790687,  0.00000000000000 ]
      - [  0.00003764297938, -0.00024440973288 ]
      - [  0.01753715658294,  0.03625386005845 ]
    - # atom 2
      - [ -0.06141453265213, -0.01692668476775 ]
      - [ -0.10412802044794,  0.01659079785525 ]
      - [  0.03353665368933,  0.69490151966272 ]
    - # atom 3
      - [  0.05481615350812, -0.03245261004644 ]
      - [  0.06034518575786, -0.08646752375910 ]
      - [  0.52399101015760,  0.45765298037380 ]
  - # 5
    frequency:   10.1805955641
    eigenvector:
    - # atom 1
      - [  0.00005931048987,  0.00000000000000 ]
      - [ -0.00001414258246,  0.00004846807937 ]
      - [ -0.02470792546098, -0.05957836477890 ]
    - # atom 2
      - [ -0.28249352284702,  0.36540031945167 ]
      - [ -0.48112352879061, -0.21570947709242 ]
      - [  0.00054168015084, -0.08117425463084 ]
    - # atom 3
      - [ -0.06692159416519, -0.45597641411804 ]
      - [  0.49042342788499, -0.19601602932784 ]
      - [ -0.05783048093858, -0.05696655603211 ]
  - # 6
    frequency:   10.4643742651
    eigenvector:
    - # atom 1
      - [ -0.07791544346781,  0.00000000000000 ]
      - [ -0.05309631202409,  0.08960256869512 ]
      - [ -0.00008848038054,  0.00008083200958 ]
    - # atom 2
      - [ -0.36926200552956, -0.35068105176592 ]
      - [ -0.29371401033688,  0.38118264918134 ]
      - [ -0.00839754992372, -0.02388275057021 ]
    - # atom 3
      - [ -0.50968297817971,  0.02387588409113 ]
      - [  0.07057274124355,  0.47494468394326 ]
      - [  0.02302833653526,  0.01051666942939 ]
  - # 7
    frequency:   11.4658088702
    eigenvector:
    - # atom 1
      - [ -0.37806732606547,  0.00000000000000 ]
      - [  0.00423130993700,  0.37559260039553 ]
      - [ -0.00040772786507,  0.00071545178575 ]
    - # atom 2
      - [  0.06287587451055,  0.42106495539139 ]
      - [ -0.41177108632228,  0.04385705582269 ]
      - [ -0.04399391448367, -0.05766238854166 ]
    - # atom 3
      - [  0.34623772347145,  0.24590660044370 ]
      - [ -0.25541343434028,  0.32732445890383 ]
      - [  0.07203358786002,  0.00846036544888 ]
  - # 8
    frequency:   11.6528910230
    eigenvector:
    - # atom 1
      - [  0.00060322894503,  0.00000000000000 ]
      - [ -0.00009776041442, -0.00053500762985 ]
      - [ -0.23560888900701,  0.50317571318849 ]
    - # atom 2
      - [ -0.20335076387033,  0.40157526848958 ]
      - [  0.37052053331767,  0.05002351352598 ]
      - [ -0.04239038049385,  0.03810518861707 ]
    - # atom 3
      - [ -0.14963631229442, -0.42539126764058 ]
      - [ -0.29219221470061,  0.23168297319458 ]
      - [ -0.00212329749672,  0.05695999794605 ]
  - # 9
    frequency:   12.1034010093
    eigenvector:
    - # atom 1
      - [ -0.39839121159241,  0.00000000000000 ]
      - [  0.01134652309111, -0.39162119125419 ]
      - [  0.00004953068925,  0.00008870779440 ]
    - # atom 2
      - [ -0.04351679991609, -0.02670625951947 ]
      - [  0.01751645376470, -0.05615600538790 ]
      - [ -0.57792458356867,  0.06188846443431 ]
    - # atom 3
      - [ -0.04940854081618,  0.01292733924995 ]
      - [ -0.02841463454237, -0.05149318211054 ]
      - [  0.35590305255742, -0.45952151582208 ]

- q-position: [    0.3562500,    0.3562500,    0.7125000 ]
  distance:    0.0066176
  band:
  - # 1
    frequency:    5.9955889060
    eigenvector:
    - # atom 1
      - [ -0.00057353174835,  0.00000000000000 ]
      - [ -0.00027464995204, -0.00065984470264 ]
      - [  0.56033661086143,  0.61034693287006 ]
    - # atom 2
      - [ -0.20751170069247, -0.19189974408079 ]
      - [ -0.16418843212545,  0.21271333171497 ]
      - [ -0.02259735561195, -0.06439931080863 ]
    - # atom 3
      - [  0.28242219750606, -0.01440240415372 ]
      - [ -0.03728814711881, -0.26595354412184 ]
      - [ -0.06223754314052, -0.02800714082084 ]
  - # 2
    frequency:    6.2695781248
    eigenvector:
    - # atom 1
      - [  0.55332670611301,  0.00000000000000 ]
      - [  0.11704240701201,  0.60601405193192 ]
      - [  0.00054838198061,  0.00076133522407 ]
    - # atom 2
      - [ -0.03239942031999, -0.03732016607363 ]
      - [ -0.00409655373396, -0.07587752479800 ]
      - [ -0.37516694944403,  0.08643738875644 ]
    - # atom 3
      - [ -0.04863636268878, -0.00290640428818 ]
      - [ -0.05710145494635, -0.05081514179694 ]
      - [  0.20084293114089, -0.32845666250108 ]
  - # 3
    frequency:    6.9846404826
    eigenvector:
    - # atom 1
      - [ -0.62273936139344,  0.00000000000000 ]
      - [  0.10045154455721,  0.55270367858815 ]
      - [ -0.00003890968521,  0.00008300496675 ]
    - # atom 2
      - [ -0.00195854065387, -0.23611755080311 ]
      - [  0.27006417885614, -0.10697224885127 ]
      - [  0.06064231565516,  0.06709216248686 ]
    - # atom 3
      - [ -0.16977695132826, -0.16426164762160 ]
      - [  0.11298876755469, -0.26750793021750 ]
      - [ -0.09036155799214, -0.00369290562998 ]
  - # 4
    frequency:    9.7154262911
    eigenvector:
    - # atom 1
      - [ -0.00027142904695,  0.00000000000000 ]
      - [  0.00003145861135, -0.00025064785826 ]
      - [  0.01609608175170,  0.03221090207380 ]
    - # atom 2
      - [ -0.05168749632625, -0.01570200346107 ]
      - [ -0.08663025298577,  0.01674771843263 ]
      - [  0.04560308579692,  0.69754465075543 ]
    - # atom 3
      - [  0.04740417550027, -0.02590917111893 ]
      - [  0.04870135429144, -0.07357427594665 ]
      - [  0.53046204746204,  0.45525618879342 ]
  - # 5
    frequency:   10.1916498724
    eigenvector:
    - # atom 1
      - [  0.00006018199614,  0.00000000000000 ]
      - [ -0.00003286153410,  0.00001607396988 ]
      - [ -0.00645710934403, -0.05507465977299 ]
    - # atom 2
      - [ -0.37021718718058,  0.28534689635370 ]
      - [ -0.39952450278097, -0.34082531763959 ]
      - [  0.01782497474614, -0.06228538497276 ]
    - # atom 3
      - [  0.05525222729883, -0.46317793792721 ]
      - [  0.52400990483108, -0.04574222605117 ]
      - [ -0.03174857553970, -0.05647324018244 ]
  - # 6
    frequency:   10.4513738826
    eigenvector:
    - # atom 1
      - [ -0.06790987261163,  0.00000000000000 ]
      - [ -0.04350173024867,  0.07829791238094 ]
      - [ -0.00007148505957,  0.00006767215348 ]
    - # atom 2
      - [ -0.37848972457916, -0.33983252185792 ]
      - [ -0.28965691588969,  0.38794215142818 ]
      - [ -0.00819327228503, -0.02178650809465 ]
    - # atom 3
      - [ -0.50849843409838,  0.03381134367419 ]
      - [  0.07430241019299,  0.47739516514018 ]
      - [  0.02130516596302,  0.00937398255510 ]
  - # 7
    frequency:   11.4695398060
    eigenvector:
    - # atom 1
      - [ -0.37850906612501,  0.00000000000000 ]
      - [  0.00529197308649,  0.37540401428600 ]
      - [ -0.00035829222963,  0.00063076404488 ]
    - # atom 2
      - [  0.06372652851387,  0.42061717592610 ]
      - [ -0.41291606617899,  0.04789892470294 ]
      - [ -0.03917746837921, -0.05077748521309 ]
    - # atom 3
      - [  0.34445409437222,  0.24805697905320 ]
      - [ -0.25597951842100,  0.32873615861759 ]
      - [  0.06367694689682,  0.00764679453931 ]
  - # 8
    frequency:   11.6471833449
    eigenvector:
    - # atom 1
      - [  0.00053411599204,  0.00000000000000 ]
      - [ -0.00009861865499, -0.00046339161476 ]
      - [ -0.22927417390570,  0.50651740747694 ]
    - # atom 2