24   
3    

1    
  0.0032862267691749   0.0000000000000000   0.0197281705594198
  -0.0451696469    0.0000938871   -0.2910897599
   0.0050658562    0.0000092240   -0.0110149019
   0.0021168513   -0.0016680217   -0.0113215979
   0.0023678127    0.0015846277   -0.0109785309
  -0.0000686053   -0.0001288164   -0.0007144719
   0.0001990229   -0.0001281612   -0.0007142042
   0.0000663366   -0.0000516206   -0.0009823855
   0.0000656900    0.0001040062   -0.0007141939
   0.0383471511    0.0205740781    0.1274251601
  -0.0229425219    0.0148526171    0.1165517401
  -0.0007199186    0.0000062153    0.0802698491
   0.0027483901   -0.0353885179    0.1219993201
  -0.0000527549    0.0000124596    0.0719592531
  -0.0000528366    0.0000286931    0.0719601141
  -0.0000668542    0.0000042811    0.0719601671
  -0.0000387366    0.0000042228    0.0719601201
  -0.0238509109   -0.0153421439   -0.0254656469
   0.0401158971   -0.0215432929   -0.0137820199
  -0.0006823989    0.0000047681   -0.0628798439
   0.0027634625    0.0369218871   -0.0196510729
  -0.0000528557    0.0000124045   -0.0711720429
  -0.0000527610    0.0000359157   -0.0712017059
  -0.0000732170    0.0000006052   -0.0712016489
  -0.0000324519    0.0000006821   -0.0712016959

9    
  0.0032862267691749   0.0000000000000000   0.0197281705594198
   0.0426302970    0.0229051240    0.0561543350
  -0.0260807300    0.0166812910    0.0452276320
  -0.0005758007   -0.0000438988    0.0072536392
   0.0028847599   -0.0396940290    0.0506713690
  -0.0000548591   -0.0001199099   -0.0007571426
   0.0002128258   -0.0001194193   -0.0007571589
   0.0000802377   -0.0000428812   -0.0010255935
   0.0000794059    0.0001126447   -0.0007571547
  -0.0223809360    0.0000006186   -0.0833286750
   0.0035496367   -0.0007330455    0.0641417120
   0.0012021603   -0.0013339874    0.0642564260
  -0.0001040094    0.0021307874    0.0640256030
  -0.0000389818    0.0000211851    0.0719399510
  -0.0000389869    0.0000374290    0.0719406930
  -0.0000530526    0.0000130672    0.0719406940
  -0.0000249213    0.0000130677    0.0719406860
  -0.0006628479    0.0000210552   -0.0569243140
   0.0003426894   -0.0038374635   -0.0703628210
   0.0029367509    0.0015198494   -0.0709358780
  -0.0037476811    0.0023837570   -0.0697899570
  -0.0000389893    0.0000211896   -0.0711913240
  -0.0000389904    0.0000447722   -0.0712209070
  -0.0000594131    0.0000093991   -0.0712209070
  -0.0000185643    0.0000093977   -0.0712209080

9    
 -0.0032862267691749   0.0000000000000000  -0.0197281705594198
  -0.0410459360   -0.0221828460   -0.0557215959
   0.0257184690   -0.0164475370   -0.0457691719
   0.0006941416   -0.0000437761   -0.0092380245
  -0.0026968021    0.0385216550   -0.0507639679
  -0.0000555222   -0.0001199648   -0.0006822036
   0.0002123558   -0.0001194689   -0.0006822075
   0.0000796778   -0.0000428747   -0.0009508879
   0.0000788477    0.0001127719   -0.0006822266
   0.0214400630    0.0000017841    0.2231574101
  -0.0036313406    0.0008286893    0.0797071671
  -0.0013341927    0.0013476340    0.0795963341
   0.0000647511   -0.0021125932    0.0798167061
  -0.0000395440    0.0000211871    0.0719985951
  -0.0000395444    0.0000374364    0.0719994991
  -0.0000536294    0.0000130639    0.0719994701
  -0.0000254781    0.0000130695    0.0719994941
   0.0005699942    0.0000210387   -0.0851004599
  -0.0004047632    0.0039702989   -0.0720214439
  -0.0031062555   -0.0015375739   -0.0714679269
   0.0037329115   -0.0023667672   -0.0725753559
  -0.0000395499    0.0000211934   -0.0711325439
  -0.0000395529    0.0000447647   -0.0711622189
  -0.0000599648    0.0000094086   -0.0711622209
  -0.0000191358    0.0000094062   -0.0711622189
